ITEM: TIMESTEP
20000
ITEM: NUMBER OF ATOMS
4070
ITEM: BOX BOUNDS pp pp pp
-28.3711 28.3711
-27.2245 27.2245
-41.595 41.595
ITEM: ATOMS id type x y z c_cna c_csym c_eng v_astress1 v_astress2 v_astress3 
3 1 -3.91009 -13.815 -39.7117 5 22.1833 -5.00431 11.983 5.87329 10.5323 
86 1 -5.86131 -13.6648 -37.8239 5 32.8223 -4.60691 9.50247 3.64527 10.0604 
1 1 -5.8539 -13.6886 -41.6023 5 32.8023 -4.60558 8.41111 4.77203 9.46011 
87 1 -1.9007 -13.8361 -37.8231 5 21.5933 -5.05713 11.1813 3.99669 9.09629 
2 1 -1.94616 -13.8465 -41.6239 5 21.5935 -5.05702 13.3418 5.04439 9.76247 
5 1 0.0479058 -13.8384 -39.7322 5 21.5728 -5.05648 11.672 4.16648 9.02464 
89 1 2.02845 -13.8233 -37.8059 5 21.5545 -5.05654 12.9302 5.78443 10.4145 
4 1 2.04744 -13.8211 -41.6001 5 21.8083 -5.057 13.1753 4.56069 9.68663 
7 1 4.02808 -13.7884 -39.6836 5 21.5405 -4.99523 12.0032 6.31564 10.8195 
91 1 5.98388 -13.6146 -37.8098 5 32.4945 -4.60816 8.78288 4.16994 9.3407 
93 1 -9.81385 -9.90923 -37.8228 5 28.8579 -4.84964 12.8967 13.5312 14.0217 
8 1 -9.8095 -9.88272 -41.6064 5 28.3831 -4.85605 12.1303 12.3269 13.1061 
12 1 -7.88628 -9.904 -39.7115 5 7.11629 -5.45362 -0.827879 -2.49965 -3.84721 
94 1 -7.83585 -11.8387 -37.8487 5 28.294 -4.86545 11.436 10.3816 13.2532 
9 1 -7.83237 -11.8358 -41.5976 5 28.8578 -4.87336 12.941 12.0757 14.2498 
11 1 -5.8763 -11.8379 -39.7128 5 6.89749 -5.38864 -0.21613 -7.71029 -8.31615 
95 1 -5.88074 -9.89087 -37.8153 1 0.0128787 -5.7098 -3.15258 -6.68224 -9.78221 
16 1 -3.89515 -9.91023 -39.6969 1 0.0181246 -5.7832 -0.917735 -0.95944 -6.88629 
98 1 -3.85324 -11.8728 -37.8236 1 0.0810864 -5.5901 -5.34633 -9.72395 -6.92019 
13 1 -3.88856 -11.8583 -41.6004 1 0.0270711 -5.5876 -5.84485 -9.87894 -7.19281 
15 1 -1.90861 -11.9048 -39.7204 1 0.0289256 -5.62494 -1.86436 -5.67231 -7.31444 
99 1 -1.92789 -9.91006 -37.8284 1 0.00634906 -5.77446 -2.04113 -0.377706 -5.1786 
20 1 0.0489857 -9.89512 -39.7287 1 0.0143335 -5.78283 -0.649668 0.568895 -5.76292 
19 1 2.00558 -11.8886 -39.7248 1 0.0353132 -5.63252 -0.431691 -5.46414 -6.65935 
102 1 0.0368246 -11.9171 -37.8243 1 0.0446852 -5.62984 -1.17061 -5.51607 -5.2371 
103 1 2.00555 -9.90483 -37.8173 1 0.0140311 -5.77876 -1.64623 -0.134383 -4.89721 
18 1 2.01578 -9.90229 -41.6021 1 0.00829277 -5.76631 -2.39879 -1.59144 -6.05907 
14 1 -1.91797 -9.92443 -41.6241 1 0.0209429 -5.77082 -2.38999 -0.774092 -5.50208 
24 1 3.99396 -9.87429 -39.7146 1 0.0102603 -5.77913 -0.730754 -1.35733 -6.86951 
106 1 3.96426 -11.8172 -37.8269 1 0.0603179 -5.59806 -4.20986 -9.44798 -6.4021 
23 1 5.97053 -11.7983 -39.7012 5 6.85979 -5.38366 0.205624 -7.52531 -8.00358 
107 1 5.98135 -9.83426 -37.8076 1 0.0167728 -5.72256 -2.42012 -4.9647 -6.63557 
6 1 5.94488 -13.6379 -41.6042 5 32.2365 -4.60844 9.31114 4.95888 9.9644 
21 1 3.95999 -11.8385 -41.6009 1 0.0606948 -5.60457 -5.85488 -8.23328 -4.39451 
27 1 7.98383 -9.85819 -39.7025 5 6.9962 -5.44263 -0.111048 -1.49828 -4.46326 
110 1 7.93185 -11.7566 -37.8264 5 28.1215 -4.87121 11.8519 9.83312 12.7514 
111 1 9.92241 -9.79401 -37.8272 5 28.3413 -4.85352 12.9518 12.4521 13.4138 
32 1 -11.7653 -5.97229 -39.7016 5 6.92025 -5.3993 -7.49962 -1.4436 -6.3399 
113 1 -13.6516 -5.94155 -37.8319 5 33.2715 -4.60187 6.69948 9.92816 11.2473 
114 1 -11.7632 -7.91889 -37.8225 5 28.4549 -4.87151 11.4087 13.2371 13.0691 
29 1 -11.7695 -7.93814 -41.5757 5 28.4661 -4.86808 11.0292 12.811 14.4394 
28 1 -13.6274 -5.97213 -41.6063 5 32.9212 -4.61088 5.72836 9.29148 10.7602 
31 1 -9.84186 -7.95363 -39.7147 5 7.12633 -5.44779 -3.17707 -1.08215 -3.90257 
115 1 -9.81895 -5.97275 -37.8182 1 0.0371794 -5.71358 -5.69779 -3.99309 -7.30273 
36 1 -7.88177 -5.97659 -39.7165 1 0.00633247 -5.7823 -0.622119 -0.576301 -6.61616 
118 1 -7.88665 -7.9395 -37.803 1 0.0189166 -5.71479 -5.31604 -5.27751 -7.05238 
33 1 -7.87139 -7.94583 -41.5943 1 0.0127474 -5.70428 -5.08597 -6.00259 -7.89848 
30 1 -9.85812 -5.96807 -41.64 1 0.0445684 -5.72317 -4.29695 -3.45109 -7.57728 
35 1 -5.90773 -7.95183 -39.6947 1 0.0180941 -5.77639 -0.637123 -2.12736 -6.97587 
119 1 -5.92615 -5.96378 -37.8018 1 0.0149756 -5.76462 -1.77378 -1.47163 -6.42487 
34 1 -5.90869 -5.97342 -41.6084 1 0.00774131 -5.75905 -2.31116 -1.77302 -6.51936 
40 1 -3.96027 -5.95053 -39.7008 1 0.0233549 -5.76966 -0.974315 -1.35335 -6.03494 
122 1 -3.90902 -7.92415 -37.8152 1 0.00956765 -5.76004 -1.77505 -2.49224 -6.78407 
39 1 -1.94851 -7.91004 -39.7109 1 0.013651 -5.76008 -1.9208 -0.743908 -6.28125 
123 1 -1.95222 -5.93712 -37.8245 1 0.00697048 -5.76591 -0.592192 -1.65352 -5.3622 
38 1 -1.96301 -5.94577 -41.5846 1 0.0104443 -5.7598 -1.60437 -1.83403 -6.11266 
44 1 0.0414664 -5.94858 -39.7305 1 0.0190471 -5.76142 -1.48179 -1.20328 -6.93952 
126 1 0.0404976 -7.9258 -37.8462 1 0.0145916 -5.76003 -0.895055 -1.02296 -5.92874 
43 1 2.04062 -7.90631 -39.7106 1 0.0264174 -5.75529 -2.8097 -1.92325 -6.57871 
127 1 2.01466 -5.9287 -37.8409 1 0.00946408 -5.74485 -2.08772 -1.96695 -7.67991 
41 1 0.037112 -7.92948 -41.6074 1 0.00639187 -5.76489 -0.44515 -1.65697 -6.20435 
42 1 1.99798 -5.91307 -41.6067 1 0.0104128 -5.74863 -2.63142 -2.07788 -8.1203 
48 1 3.97214 -5.91615 -39.72 1 0.00523481 -5.76307 -1.82269 -0.794668 -5.92071 
130 1 3.9846 -7.89912 -37.8132 1 0.0072653 -5.76237 -1.93444 -1.14288 -6.17135 
47 1 5.97847 -7.89054 -39.7084 1 0.00837262 -5.7924 1.11069 0.257454 -5.08507 
131 1 5.95328 -5.90595 -37.818 1 0.00645022 -5.77431 -0.69181 -1.30325 -4.73634 
52 1 7.93942 -5.90941 -39.7106 1 0.0143121 -5.7777 -1.4595 -0.0713772 -7.27683 
134 1 7.96399 -7.86416 -37.8146 1 0.0152762 -5.71174 -4.61487 -5.04898 -7.29888 
51 1 9.94201 -7.87481 -39.7051 5 6.99152 -5.43465 -2.65664 -2.42737 -5.81973 
135 1 9.89119 -5.87715 -37.8079 1 0.0145414 -5.71912 -5.44468 -4.57312 -8.0818 
55 1 11.8312 -5.87029 -39.707 5 6.95648 -5.3884 -8.43859 -1.2567 -8.44215 
138 1 11.8464 -7.80526 -37.8108 5 28.3385 -4.88114 9.32982 11.4849 12.2077 
139 1 13.7134 -5.8524 -37.8315 5 33.5684 -4.59582 6.61205 10.2878 11.7877 
57 1 -13.7411 -4.01313 -39.7299 5 21.2534 -5.01343 3.66258 9.84676 7.97328 
61 1 -11.8788 -2.00059 -39.7102 1 0.0410349 -5.61826 -6.4354 -3.45258 -7.40566 
141 1 -13.8255 -2.06508 -37.8292 5 21.3341 -5.05821 4.7346 11.9463 8.53139 
143 1 -11.8253 -3.96741 -37.8194 1 0.0425155 -5.58841 -9.68346 -4.93275 -7.34492 
58 1 -11.8314 -3.96348 -41.6058 1 0.0650514 -5.57819 -11.3813 -4.9835 -7.83552 
1973 1 -11.8964 -0.0560868 -37.8395 1 0.0231019 -5.62315 -6.48546 -1.09337 -8.18832 
1872 1 -13.8484 -0.0465647 -39.7092 5 21.8159 -5.05248 5.02895 12.5116 9.52898 
1873 1 -11.9016 -0.0604471 -41.5946 1 0.0467034 -5.63142 -5.34601 -1.50725 -6.43373 
56 1 -13.8151 -2.0273 -41.6176 5 21.7753 -5.05936 4.97152 11.9279 9.77378 
60 1 -9.88109 -3.99009 -39.7294 1 0.0237715 -5.78661 -1.35611 -0.594407 -6.44355 
144 1 -9.88347 -2.00373 -37.8318 1 0.0115901 -5.77826 -0.936974 -2.18909 -5.57158 
65 1 -7.90428 -2.01378 -39.7154 1 0.00366164 -5.76422 -1.0349 -2.26609 -6.52369 
147 1 -7.90611 -3.97578 -37.8287 1 0.0121979 -5.76209 -1.87364 -2.05989 -5.57184 
62 1 -7.8825 -4.0001 -41.6004 1 0.0148143 -5.77242 -1.61747 -0.942791 -5.28959 
1875 1 -9.90551 -0.052053 -39.7381 1 0.0174846 -5.77605 -0.378397 -2.17198 -6.0616 
1977 1 -7.8995 -0.0371429 -37.8221 1 0.00843966 -5.75834 -1.61235 -2.63587 -6.4777 
59 1 -9.88359 -2.02492 -41.6229 1 0.0102476 -5.77273 -0.123166 -2.81146 -6.34278 
1877 1 -7.89523 -0.0525106 -41.6015 1 0.0128091 -5.75849 -2.05145 -1.48152 -6.50883 
64 1 -5.91912 -3.97203 -39.7177 1 0.00818104 -5.7643 -2.67374 -0.897854 -5.76858 
148 1 -5.92649 -2.0074 -37.8141 1 0.00345049 -5.76184 -1.49594 -2.13268 -5.62394 
69 1 -3.95012 -2.01628 -39.7179 1 0.0150726 -5.7587 -0.967553 -2.20808 -6.78377 
151 1 -3.94189 -3.98313 -37.8262 1 0.00411681 -5.75464 -1.63156 -1.37401 -6.39426 
66 1 -3.94944 -3.96025 -41.6097 1 0.0129485 -5.76205 -2.31046 -1.09681 -6.88232 
1879 1 -5.93841 -0.0202316 -39.7033 1 0.00913074 -5.75697 -2.80317 -0.748845 -6.80433 
1981 1 -3.97007 -0.0269375 -37.8229 1 0.012082 -5.77071 -1.03953 -0.761336 -5.59752 
63 1 -5.92616 -1.99819 -41.6254 1 0.0160143 -5.75304 -2.65338 -3.24041 -6.03138 
68 1 -1.96351 -3.96476 -39.7125 1 0.00501921 -5.76039 -1.45818 -1.36546 -7.20271 
152 1 -1.97716 -1.98407 -37.8401 1 0.00871786 -5.7617 -1.45508 -1.38592 -6.53051 
73 1 0.00278788 -1.97292 -39.7249 1 0.00669057 -5.7636 -1.94712 -1.27322 -6.44331 
72 1 1.99829 -3.93034 -39.728 1 0.0111325 -5.7658 -0.672559 -1.95599 -6.46404 
155 1 0.0207848 -3.96721 -37.8239 1 0.00551626 -5.77128 -1.13806 -0.787925 -5.4028 
156 1 1.97627 -1.98575 -37.8276 1 0.0080319 -5.76549 -1.20292 -1.6215 -6.38241 
1883 1 -1.97458 0.00499223 -39.7221 1 0.011022 -5.77841 -0.442232 -0.604548 -4.76006 
67 1 -1.97223 -1.98154 -41.6212 1 0.0122282 -5.75916 -2.41338 -1.93245 -7.00461 
70 1 -0.0127265 -3.96511 -41.599 1 0.0210706 -5.75401 -2.47339 -2.52906 -7.20309 
71 1 1.97063 -1.96689 -41.611 1 0.010475 -5.76118 -1.36856 -1.70068 -6.95259 
77 1 3.96519 -1.94209 -39.719 1 0.0114621 -5.75708 -1.74219 -2.85534 -7.30274 
159 1 3.98314 -3.93701 -37.8294 1 0.00868922 -5.7706 -2.01803 -0.570555 -5.5393 
76 1 5.94733 -3.92046 -39.7142 1 0.00338177 -5.76376 -0.841623 -1.18512 -6.69232 
160 1 5.94517 -1.95384 -37.8228 1 0.00726822 -5.74768 -2.75441 -3.85367 -7.43951 
81 1 7.90669 -1.934 -39.7029 1 0.0119728 -5.76168 -2.43028 -1.81544 -6.23529 
163 1 7.89671 -3.91866 -37.7899 1 0.0306408 -5.7744 -2.51077 -0.883853 -5.11942 
80 1 9.88741 -3.8913 -39.6945 1 0.015865 -5.78166 -0.0415869 -1.77717 -7.28636 
164 1 9.896 -1.93852 -37.8193 1 0.00880554 -5.77015 -0.726884 -2.87814 -6.80296 
85 1 11.9077 -1.91037 -39.6966 1 0.0370808 -5.63263 -5.53235 -1.33402 -6.39688 
167 1 11.862 -3.87519 -37.8081 1 0.032874 -5.59887 -8.5693 -5.09368 -6.83717 
84 1 13.8107 -3.90681 -39.6933 5 22.0836 -5.0029 5.2411 10.9475 9.41977 
168 1 13.84 -1.93599 -37.8037 5 21.6696 -5.05338 5.01164 12.8554 9.33992 
83 1 13.8576 -1.91164 -41.5905 5 21.9702 -5.04934 5.97155 12.9191 10.3378 
88 1 -3.89254 -13.792 -35.9217 5 21.6938 -5.00827 11.4746 4.4229 9.18437 
171 1 -5.84238 -13.6831 -34.0302 5 33.1522 -4.60882 9.69674 6.30646 11.6282 
172 1 -1.93596 -13.8442 -34.0381 5 21.9803 -5.05237 11.7712 4.89666 8.59773 
90 1 0.0495952 -13.8425 -35.9146 5 21.8823 -5.05274 11.6804 4.64897 8.58945 
174 1 2.04849 -13.8262 -34.0303 5 21.8895 -5.0508 14.3795 4.94336 10.5795 
92 1 4.03307 -13.756 -35.9464 5 21.1451 -5.00895 10.8689 5.40708 9.26778 
176 1 5.96354 -13.637 -34.0546 5 32.9988 -4.60376 9.68978 5.68421 10.1062 
178 1 -9.81303 -9.88657 -34.0568 5 28.257 -4.85324 12.5808 11.8594 12.7334 
97 1 -7.89458 -9.93743 -35.9347 5 6.89224 -5.43911 -1.65513 -1.9883 -4.67424 
179 1 -7.83461 -11.8329 -34.0473 5 28.9319 -4.86897 12.8665 11.3319 13.6798 
96 1 -5.89221 -11.8221 -35.9545 5 6.8427 -5.39474 0.273491 -8.35438 -7.42447 
180 1 -5.88738 -9.89092 -34.0459 1 0.00849392 -5.70117 -4.67404 -6.30216 -9.3056 
101 1 -3.90697 -9.90554 -35.9268 1 0.011276 -5.78258 -1.53188 -1.66735 -7.4045 
183 1 -3.86745 -11.861 -34.0547 1 0.0622877 -5.57752 -5.82648 -10.8437 -8.58929 
100 1 -1.91112 -11.8979 -35.9228 1 0.0237557 -5.61872 -2.95091 -6.44903 -7.50523 
184 1 -1.91628 -9.89616 -34.0281 1 0.0120136 -5.78096 -1.56514 -0.366913 -5.26602 
187 1 0.0550041 -11.9015 -34.0411 1 0.0233308 -5.64561 -0.176944 -4.00275 -5.54198 
104 1 2.01132 -11.8768 -35.9213 1 0.0201811 -5.62547 -1.10615 -6.04373 -6.72901 
105 1 0.040707 -9.91262 -35.9342 1 0.00672343 -5.77814 -1.44126 0.573646 -5.3124 
188 1 2.02388 -9.88056 -34.0414 1 0.00877068 -5.77198 -2.0559 -0.844059 -5.42338 
109 1 3.99164 -9.87865 -35.9209 1 0.0168857 -5.7781 -0.316681 -1.13322 -7.04359 
191 1 3.97883 -11.8255 -34.0421 1 0.0532582 -5.58856 -5.23677 -9.47605 -6.861 
108 1 6.00091 -11.7722 -35.9202 5 6.97466 -5.38889 0.74531 -8.59436 -7.77189 
192 1 5.99684 -9.8568 -34.0188 1 0.0182043 -5.7148 -2.80283 -6.09112 -7.95812 
112 1 7.99862 -9.85977 -35.9222 5 6.90735 -5.44722 -0.478929 -0.788367 -3.82996 
195 1 7.96492 -11.7642 -34.0236 5 28.6559 -4.86122 12.6423 11.2777 13.4764 
196 1 9.91649 -9.80973 -34.0632 5 28.4239 -4.84709 11.9914 13.0043 13.5499 
117 1 -11.7991 -5.97424 -35.9254 5 6.89722 -5.40693 -5.75952 -0.54451 -5.36962 
198 1 -13.6544 -5.95745 -34.0188 5 33.0069 -4.60536 5.67892 8.94841 10.2089 
199 1 -11.7818 -7.91793 -34.0461 5 28.4637 -4.86702 10.0233 11.3815 11.9093 
116 1 -9.88181 -7.97067 -35.9347 5 6.84465 -5.4337 -1.73483 -0.539738 -5.08883 
200 1 -9.83618 -5.98324 -34.0294 1 0.0275816 -5.72186 -5.22375 -3.22164 -7.62693 
121 1 -7.8814 -5.96922 -35.9231 1 0.00739928 -5.76598 -1.72417 -0.075383 -7.96651 
203 1 -7.87186 -7.94971 -34.0501 1 0.013691 -5.72381 -4.5666 -5.52163 -6.38818 
120 1 -5.90055 -7.95824 -35.9376 1 0.0181892 -5.76296 -1.39527 -2.7426 -8.67967 
204 1 -5.90652 -5.96517 -34.0296 1 0.00474828 -5.76104 -2.20852 -1.85973 -6.26012 
125 1 -3.91929 -5.96934 -35.9193 1 0.00964823 -5.76533 -0.411621 -1.45788 -6.33679 
207 1 -3.92665 -7.92965 -34.045 1 0.00614857 -5.76065 -1.11772 -3.45295 -6.67263 
124 1 -1.92101 -7.9329 -35.9266 1 0.00885582 -5.77114 -0.530496 -0.958348 -5.15799 
208 1 -1.93666 -5.96502 -34.0357 1 0.0132902 -5.76954 -0.656989 -0.708426 -5.33536 
129 1 0.0503628 -5.95107 -35.9507 1 0.0225911 -5.76781 -0.882238 -1.00036 -4.73527 
128 1 2.01094 -7.89196 -35.9416 1 0.0221741 -5.76704 -1.63182 -1.41623 -5.46223 
211 1 0.0525378 -7.93642 -34.0247 1 0.0172266 -5.75611 -1.86492 -1.87761 -5.45002 
212 1 2.0047 -5.9368 -34.0141 1 0.0233861 -5.75748 -1.17897 -1.11498 -7.16626 
133 1 3.97128 -5.92751 -35.9095 1 0.0207348 -5.76555 -1.73038 -1.74542 -5.555 
215 1 4.00809 -7.90237 -34.0431 1 0.012145 -5.77161 -1.12086 -1.69692 -5.67415 
132 1 5.981 -7.89012 -35.9305 1 0.00747826 -5.77512 -0.174959 -0.926341 -6.47244 
216 1 5.95131 -5.90268 -34.0397 1 0.010833 -5.76472 -1.534 -1.26586 -6.05331 
137 1 7.93694 -5.93018 -35.9308 1 0.0396314 -5.76558 -1.50775 -1.42597 -7.79281 
219 1 7.96679 -7.876 -34.0382 1 0.0104935 -5.72361 -3.53978 -4.66383 -6.72046 
136 1 9.94707 -7.86037 -35.9445 5 7.04478 -5.4288 -3.50182 -1.75145 -6.25815 
220 1 9.90098 -5.88013 -34.0387 1 0.0141024 -5.71583 -5.29738 -4.87122 -7.69839 
140 1 11.8691 -5.85889 -35.9246 5 6.90226 -5.39295 -6.49607 -1.89318 -7.40703 
223 1 11.8371 -7.80403 -34.0516 5 27.9256 -4.88146 9.89634 11.2447 12.1354 
224 1 13.7181 -5.8588 -34.0077 5 34.3841 -4.5863 5.99903 9.95738 11.2678 
142 1 -13.7663 -4.0221 -35.926 5 21.5578 -5.00566 4.39398 10.0931 9.32384 
146 1 -11.9035 -2.01813 -35.9265 1 0.0659016 -5.62639 -5.90564 -3.07088 -5.91673 
226 1 -13.8482 -2.02855 -34.0342 5 14.7247 -5.0435 5.97645 13.4225 9.96348 
228 1 -11.8354 -3.9611 -34.033 1 0.0639868 -5.5896 -9.03506 -4.62561 -7.82423 
1972 1 -13.8134 -0.0636573 -35.9562 5 21.1241 -5.06805 3.11547 11.2182 8.96146 
2073 1 -11.8858 -0.0509136 -34.0537 1 0.0174637 -5.63214 -5.56946 -1.34261 -6.88224 
145 1 -9.88215 -3.98864 -35.926 1 0.0169475 -5.79755 0.160517 0.505814 -5.32882 
229 1 -9.87793 -2.01612 -34.0316 1 0.00876857 -5.76837 -0.834084 -2.60093 -5.26522 
150 1 -7.91002 -2.01178 -35.9355 1 0.00690864 -5.76013 -0.795172 -2.03001 -6.47689 
232 1 -7.88011 -3.98434 -34.0316 1 0.00909928 -5.76452 -0.996541 -1.62348 -5.79413 
1975 1 -9.91617 -0.0529574 -35.9468 1 0.0170432 -5.76881 -0.799846 -2.73552 -6.5048 
2077 1 -7.91442 -0.0668931 -34.0492 1 0.0191419 -5.75668 -2.18625 -2.29919 -6.25913 
149 1 -5.92283 -3.99383 -35.9378 1 0.0095242 -5.7732 -0.443662 -0.712519 -5.40135 
233 1 -5.89843 -2.00491 -34.0234 1 0.0238163 -5.77202 -0.705094 -1.05022 -4.82294 
154 1 -3.93136 -2.00404 -35.9245 1 0.00930946 -5.75981 -1.83272 -1.31033 -6.44747 
236 1 -3.93284 -3.98943 -34.0371 1 0.00499111 -5.77403 -0.0406637 -1.32195 -4.97181 
2081 1 -3.94388 -0.023787 -34.0417 1 0.0087512 -5.75203 -2.40791 -2.64277 -6.54193 
1979 1 -5.93447 -0.04065 -35.9203 1 0.00701184 -5.75536 -1.93434 -1.70898 -7.27318 
153 1 -1.96485 -3.96758 -35.9434 1 0.00693187 -5.75656 -1.96057 -1.01815 -6.31003 
237 1 -1.97779 -1.99379 -34.0454 1 0.0045545 -5.75666 -2.38512 -1.84258 -6.97907 
158 1 -0.00805303 -1.98808 -35.9371 1 0.00451526 -5.76135 -1.33699 -2.02775 -6.48522 
240 1 0.00209564 -3.96548 -34.0605 1 0.0224053 -5.76929 -0.889999 -1.01262 -5.54483 
157 1 2.00423 -3.97281 -35.9315 1 0.0143717 -5.77013 -1.05728 -1.28065 -5.32269 
241 1 1.98378 -1.98624 -34.0541 1 0.00624864 -5.76224 -2.06196 -1.61245 -6.51653 
1983 1 -1.97997 -0.0117626 -35.9396 1 0.00451466 -5.75607 -3.0391 -2.42199 -7.09791 
2085 1 -0.00217706 -0.000944604 -34.0539 1 0.00819229 -5.76341 -1.74942 -1.68353 -7.12712 
162 1 3.94825 -1.96243 -35.9329 1 0.008844 -5.75527 -2.25071 -2.68016 -7.62406 
244 1 3.98411 -3.92782 -34.029 1 0.0108466 -5.74976 -2.84673 -1.96569 -7.32278 
161 1 5.93059 -3.92035 -35.925 1 0.0129411 -5.76086 -1.65729 -0.994036 -7.70125 
245 1 5.9395 -1.93965 -34.055 1 0.0120683 -5.75042 -3.04783 -3.48369 -7.5093 
166 1 7.92251 -1.9249 -35.912 1 0.0152446 -5.74833 -3.08294 -3.43261 -8.3425 
248 1 7.92906 -3.90751 -34.0366 1 0.0046781 -5.76696 -2.67282 -0.85066 -6.12203 
165 1 9.88558 -3.89724 -35.9123 1 0.0125541 -5.78392 -0.281845 -1.42688 -7.75233 
249 1 9.90347 -1.93328 -34.0433 1 0.00882881 -5.77179 -1.14621 -2.31112 -6.49308 
170 1 11.8883 -1.91289 -35.9332 1 0.0258149 -5.62619 -7.03624 -1.13268 -7.00753 
252 1 11.8764 -3.88078 -34.0212 1 0.0361611 -5.58634 -10.3764 -4.85947 -7.36345 
169 1 13.7886 -3.89784 -35.8996 5 21.35 -5.01185 3.56283 10.5761 9.32749 
253 1 13.7977 -1.90759 -34.029 5 21.2269 -5.07246 3.20065 10.8541 8.11547 
258 1 -3.91205 -13.7744 -28.3835 5 21.2237 -5.01192 10.0111 3.82018 9.02234 
256 1 -5.83264 -13.6687 -30.2928 5 32.047 -4.61383 8.08859 4.76232 9.28745 
173 1 -3.90008 -13.78 -32.1471 5 21.5629 -5.01052 8.1033 3.614 7.27014 
257 1 -1.93938 -13.837 -30.245 5 21.5542 -5.05197 11.0235 5.19773 8.16926 
175 1 0.0445594 -13.8553 -32.1179 5 21.4835 -5.04547 13.4936 5.7852 10.3612 
259 1 2.05852 -13.8262 -30.2696 5 21.3139 -5.05185 12.8286 5.92758 9.46736 
260 1 0.0571473 -13.8195 -28.3777 5 21.2455 -5.06259 11.5979 4.87574 9.24547 
177 1 4.05654 -13.7552 -32.1456 5 21.13 -5.00126 9.37629 4.72984 8.06693 
262 1 4.01087 -13.7662 -28.3723 5 21.8233 -5.00315 11.3942 5.86952 9.89513 
261 1 5.93629 -13.6497 -30.2493 5 32.7465 -4.60386 8.57057 6.92351 10.2019 
263 1 -9.80359 -9.89145 -30.265 5 28.4969 -4.84804 12.9897 12.6082 13.4207 
182 1 -7.8736 -9.89551 -32.1525 5 7.21862 -5.46506 -1.1145 -1.26229 -2.59359 
264 1 -7.84568 -11.8335 -30.2539 5 29.2995 -4.86086 13.4846 12.0068 14.9567 
267 1 -7.88213 -9.9206 -28.3613 5 6.96853 -5.4456 -1.27304 -1.5419 -3.79161 
181 1 -5.88848 -11.8204 -32.1649 5 7.06823 -5.38539 0.0805619 -9.17599 -8.14866 
265 1 -5.88783 -9.89119 -30.2481 1 0.0138125 -5.71663 -3.42192 -5.43197 -8.73685 
266 1 -5.88297 -11.8338 -28.3756 5 6.86232 -5.39638 -0.502993 -7.67007 -6.92019 
186 1 -3.91189 -9.88737 -32.1606 1 0.0129869 -5.7846 -1.45209 -1.10254 -7.27642 
268 1 -3.89146 -11.8357 -30.272 1 0.0293377 -5.569 -7.27488 -12.0873 -9.05268 
271 1 -3.91211 -9.89577 -28.3815 1 0.00976111 -5.77581 -1.94247 -2.1764 -7.65484 
185 1 -1.94353 -11.8923 -32.1602 1 0.0326392 -5.62825 -1.94386 -6.18337 -7.37827 
269 1 -1.93042 -9.90223 -30.2785 1 0.0129923 -5.78185 -1.28567 -0.549179 -5.2367 
270 1 -1.93095 -11.885 -28.3785 1 0.0221753 -5.6268 -1.69299 -6.63127 -7.02986 
275 1 0.0409913 -9.89563 -28.3733 1 0.00448513 -5.77815 -1.89193 0.769025 -5.69062 
189 1 2.01696 -11.9003 -32.1626 1 0.0731835 -5.62388 -1.08704 -6.02551 -6.88377 
190 1 0.0689986 -9.90621 -32.1486 1 0.0186958 -5.76931 -1.47646 0.282439 -6.75976 
272 1 0.0246542 -11.9028 -30.2843 1 0.0520152 -5.63361 0.546448 -5.88471 -5.70852 
273 1 2.00617 -9.89723 -30.2614 1 0.0104486 -5.75701 -3.74346 -0.893971 -6.95269 
274 1 1.99432 -11.8736 -28.3662 1 0.0228004 -5.63764 -0.771443 -6.55936 -5.32928 
194 1 4.01006 -9.88348 -32.1225 1 0.0350509 -5.77913 -0.988424 -1.3643 -7.84142 
276 1 3.9636 -11.8152 -30.2594 1 0.0608751 -5.59181 -3.59721 -11.3008 -6.94962 
279 1 3.97141 -9.89031 -28.3652 1 0.0229589 -5.78628 0.0287141 -0.661279 -7.0121 
193 1 6.00791 -11.7864 -32.1628 5 6.88171 -5.38306 -0.751926 -8.01405 -7.70517 
277 1 5.98957 -9.83927 -30.2634 1 0.0207107 -5.71295 -4.89317 -5.50111 -7.63059 
278 1 5.99288 -11.7928 -28.3574 5 7.00566 -5.40806 1.4173 -6.13007 -4.95545 
197 1 7.99784 -9.84206 -32.1419 5 6.99843 -5.438 -1.58419 -2.60989 -4.77496 
280 1 7.91552 -11.7734 -30.2687 5 28.0594 -4.86948 12.0464 11.2497 12.8255 
282 1 7.96247 -9.86652 -28.3607 5 7.03397 -5.45931 -0.673275 -0.0612603 -2.17515 
281 1 9.89221 -9.80806 -30.2391 5 28.313 -4.85227 11.7186 12.1285 12.5529 
202 1 -11.79 -5.9919 -32.1596 5 7.05733 -5.36747 -9.12954 -1.72958 -9.44141 
283 1 -13.6481 -5.97029 -30.2725 5 33.0533 -4.60228 5.28094 8.95052 11.0374 
284 1 -11.7816 -7.92092 -30.2666 5 28.4925 -4.86854 11.045 11.7863 13.6113 
287 1 -11.8136 -5.98395 -28.3559 5 6.79413 -5.38394 -7.51742 0.0447874 -7.54091 
201 1 -9.87706 -7.97651 -32.1663 5 6.88562 -5.4346 -1.34948 -1.65209 -4.59449 
285 1 -9.862 -5.98241 -30.2637 1 0.0137318 -5.72168 -4.86221 -3.85479 -6.19127 
286 1 -9.85449 -7.97773 -28.368 5 6.9561 -5.45273 -0.908692 0.195749 -3.41767 
206 1 -7.89086 -5.96052 -32.1585 1 0.0113473 -5.76988 -2.00713 -0.510996 -7.4539 
288 1 -7.89099 -7.91776 -30.2557 1 0.0252971 -5.72382 -4.25102 -4.09331 -5.69333 
291 1 -7.89821 -5.96315 -28.3544 1 0.00944853 -5.77464 -0.214527 -0.751108 -6.84747 
205 1 -5.91318 -7.93096 -32.1505 1 0.00812888 -5.7769 -0.430448 -2.05989 -7.08381 
289 1 -5.9075 -5.96225 -30.2558 1 0.0044443 -5.76227 -1.26294 -2.7267 -5.95951 
290 1 -5.8972 -7.94169 -28.3897 1 0.0185957 -5.77264 -0.205907 -1.931 -7.11623 
210 1 -3.91545 -5.94554 -32.1495 1 0.00643484 -5.75663 -1.65362 -2.47444 -7.05021 
292 1 -3.90943 -7.89965 -30.2597 1 0.0147219 -5.75622 -2.07484 -2.31775 -7.47598 
295 1 -3.91972 -5.95421 -28.3709 1 0.00417289 -5.76742 -0.253453 -2.33348 -5.96206 
209 1 -1.93779 -7.89942 -32.1266 1 0.0264939 -5.76518 -0.857163 -1.85435 -6.25755 
293 1 -1.92513 -5.91292 -30.2583 1 0.0224195 -5.75647 -1.49417 -2.50302 -6.90352 
294 1 -1.94222 -7.91565 -28.3682 1 0.00399315 -5.76934 -2.06762 -0.907244 -5.928 
299 1 0.0293592 -5.934 -28.3534 1 0.0054428 -5.75644 -2.46923 -1.86509 -7.3709 
296 1 0.0502035 -7.907 -30.249 1 0.00623822 -5.7625 -2.02634 -1.68545 -6.35083 
213 1 2.02532 -7.91665 -32.1425 1 0.00390513 -5.75523 -1.83144 -2.56264 -7.04887 
214 1 0.0499581 -5.94226 -32.1481 1 0.00847573 -5.75516 -2.71142 -1.05799 -6.54364 
297 1 2.01008 -5.94082 -30.247 1 0.00743154 -5.76436 -1.58403 -1.52673 -6.6647 
298 1 2.01385 -7.90929 -28.3674 1 0.00518875 -5.75041 -2.80881 -2.56616 -7.6718 
218 1 4.0024 -5.92148 -32.1373 1 0.00763482 -5.76973 -1.55113 -1.11823 -6.03848 
300 1 3.99904 -7.91277 -30.2534 1 0.00531048 -5.76789 -1.60869 -2.54939 -6.02009 
303 1 3.97877 -5.91923 -28.3692 1 0.00883437 -5.75852 -1.41051 -2.07805 -6.05743 
217 1 5.98421 -7.89099 -32.1561 1 0.0090913 -5.76443 -1.11834 -2.47581 -7.95778 
301 1 5.97342 -5.93154 -30.2537 1 0.0102543 -5.75726 -2.00373 -2.50398 -6.5339 
302 1 5.9823 -7.89678 -28.3595 1 0.0116331 -5.78175 0.416714 -0.931089 -6.80208 
222 1 7.94312 -5.906 -32.1535 1 0.00449393 -5.77467 -1.57734 -0.669136 -6.70742 
304 1 7.94196 -7.87551 -30.2576 1 0.00998691 -5.70909 -5.77979 -5.61033 -6.93798 
307 1 7.94298 -5.92549 -28.3457 1 0.0138734 -5.77693 -1.65254 -1.15487 -6.11345 
221 1 9.94003 -7.88651 -32.1475 5 6.85757 -5.45346 -1.60617 -0.337491 -3.16565 
305 1 9.89641 -5.89029 -30.2616 1 0.00897713 -5.72715 -4.11906 -3.34494 -7.67368 
306 1 9.91582 -7.87891 -28.3666 5 7.07322 -5.44289 -2.35023 -0.93385 -4.41542 
225 1 11.8556 -5.88703 -32.1444 5 6.92881 -5.38423 -8.0875 0.100949 -7.90414 
308 1 11.835 -7.85961 -30.2351 5 28.8545 -4.86311 10.9933 13.6767 14.4421 
309 1 13.6891 -5.86627 -30.2544 5 32.921 -4.60534 5.2324 9.51824 9.90724 
310 1 11.8362 -5.86752 -28.375 5 7.03073 -5.38964 -8.31556 -1.40131 -7.87998 
227 1 -13.7721 -4.0258 -32.162 5 21.7141 -5.00283 4.83572 10.3052 8.8776 
231 1 -11.8878 -2.02038 -32.1574 1 0.0374774 -5.63476 -4.94208 -1.45185 -5.80258 
311 1 -13.8116 -2.04613 -30.2439 5 21.5439 -5.05769 4.80159 12.704 9.52704 
313 1 -11.832 -3.99888 -30.2637 1 0.0248568 -5.601 -8.9369 -4.38739 -5.49977 
312 1 -13.7734 -4.04533 -28.3596 5 21.697 -5.00191 5.82426 10.8507 10.2481 
316 1 -11.884 -2.02259 -28.3621 1 0.0258792 -5.62749 -7.16153 0.153341 -6.31934 
2173 1 -11.9018 -0.0636829 -30.276 1 0.042713 -5.62111 -6.78902 -1.27879 -6.25573 
2072 1 -13.8292 -0.0481406 -32.1414 5 21.8965 -5.05641 4.54512 11.4222 8.60048 
2172 1 -13.8327 -0.0726269 -28.3664 5 21.7409 -5.05759 5.45504 11.1464 9.16493 
230 1 -9.87135 -3.9944 -32.1429 1 0.0104334 -5.78438 -0.42734 -1.04125 -6.34059 
314 1 -9.88638 -2.02751 -30.2393 1 0.00709929 -5.78826 0.81937 -1.18339 -4.44761 
315 1 -9.88779 -4.00683 -28.3466 1 0.020632 -5.77773 -0.954561 -1.32411 -7.31423 
235 1 -7.8981 -2.01945 -32.1377 1 0.00312217 -5.75964 -1.25267 -1.9259 -5.99411 
317 1 -7.89308 -3.989 -30.232 1 0.00642409 -5.7775 -0.709799 -0.865545 -5.02431 
320 1 -7.90258 -2.01121 -28.3366 1 0.0125906 -5.7597 -1.79686 -1.07243 -7.03864 
2177 1 -7.92724 -0.0412593 -30.2536 1 0.00843454 -5.76047 -1.45565 -1.56547 -5.73634 
2175 1 -9.91497 -0.0503493 -28.367 1 0.0130708 -5.77829 1.10562 -1.93754 -5.49235 
2075 1 -9.89805 -0.0543285 -32.156 1 0.00500296 -5.78229 0.237284 -1.33738 -5.92244 
234 1 -5.91946 -3.99549 -32.1339 1 0.00758075 -5.76018 -1.55693 -1.57523 -6.25464 
318 1 -5.92995 -2.01145 -30.2334 1 0.00774368 -5.76727 -0.964239 -0.909988 -5.74633 
319 1 -5.90419 -3.99117 -28.3424 1 0.0126647 -5.75184 -2.22142 -1.93068 -7.31173 
239 1 -3.94134 -1.99546 -32.1304 1 0.00842112 -5.76353 -1.76837 -0.791802 -6.67599 
321 1 -3.93962 -3.97598 -30.2589 1 0.00610674 -5.75969 -1.45818 -2.53088 -6.71574 
324 1 -3.93469 -2.01015 -28.3708 1 0.0091268 -5.76332 -2.04797 -1.68906 -6.08354 
238 1 -1.94414 -3.96826 -32.1446 1 0.00697829 -5.75883 -1.6205 -2.30786 -6.84386 
322 1 -1.97408 -1.98931 -30.2722 1 0.00988336 -5.74976 -2.71541 -2.59159 -7.68622 
323 1 -1.94563 -3.94976 -28.3672 1 0.0114338 -5.7654 -1.62956 -2.34083 -6.00968 
243 1 0.0169466 -1.9925 -32.1633 1 0.00758589 -5.76778 -1.3768 -1.52219 -6.00446 
328 1 0.00804314 -1.99841 -28.3756 1 0.00810683 -5.75541 -2.20147 -2.93527 -6.97875 
242 1 2.01737 -3.95028 -32.1617 1 0.0127367 -5.76484 -1.34088 -1.5671 -5.92731 
325 1 0.0343895 -3.94161 -30.2668 1 0.012862 -5.7574 -2.22228 -2.39327 -6.61696 
326 1 1.99209 -1.97585 -30.2612 1 0.00135658 -5.75797 -2.17377 -1.98253 -6.33916 
327 1 2.00076 -3.96168 -28.3714 1 0.00431706 -5.77085 -1.6288 -1.07985 -5.3665 
2187 1 1.96956 -0.00575663 -28.3688 1 0.00274027 -5.76605 -1.60652 -1.65876 -6.13573 
247 1 3.97485 -1.95642 -32.152 1 0.0050908 -5.75768 -1.21818 -2.94495 -7.08401 
329 1 3.9843 -3.94291 -30.2667 1 0.00487106 -5.76436 -1.20646 -1.18653 -6.75953 
332 1 3.96009 -1.96844 -28.3722 1 0.00506737 -5.75915 -1.59514 -1.77736 -6.83592 
246 1 5.96666 -3.92506 -32.1466 1 0.00464125 -5.76822 -2.14609 -0.198282 -6.23327 
330 1 5.94774 -1.94611 -30.2451 1 0.0104135 -5.76492 -2.2551 -1.31371 -6.32967 
331 1 5.95403 -3.9652 -28.3766 1 0.0193452 -5.76684 -1.21579 -1.3303 -6.04572 
251 1 7.92737 -1.92533 -32.1479 1 0.00726906 -5.77132 -0.58035 -1.81708 -6.29219 
333 1 7.91595 -3.92016 -30.2568 1 0.00866628 -5.76442 -2.6852 -0.52865 -6.20439 
336 1 7.90526 -1.94733 -28.3691 1 0.0100619 -5.75342 -2.64519 -1.79189 -7.6808 
250 1 9.90713 -3.91883 -32.1509 1 0.00945576 -5.7863 -0.438755 -0.858324 -6.87503 
334 1 9.9066 -1.92856 -30.2539 1 0.00413219 -5.77762 -0.865818 -1.10121 -5.43071 
335 1 9.8792 -3.91902 -28.3722 1 0.0176369 -5.78464 -0.850287 -1.14613 -6.6914 
255 1 11.886 -1.91037 -32.1311 1 0.0168521 -5.62936 -5.58346 -1.41366 -7.35237 
337 1 11.8721 -3.87771 -30.2568 1 0.0519671 -5.58379 -9.50096 -5.60481 -7.4964 
254 1 13.8097 -3.89545 -32.1308 5 21.7768 -5.00682 4.9033 11.5378 9.41825 
338 1 13.8503 -1.93213 -30.2295 5 21.8132 -5.05325 5.50058 12.384 10.1694 
340 1 11.885 -1.92849 -28.361 1 0.0143146 -5.63322 -5.48842 -0.98642 -7.34791 
339 1 13.798 -3.93842 -28.3712 5 21.3142 -5.00221 4.57691 9.8398 8.54688 
343 1 -3.9024 -13.783 -24.5765 5 21.5297 -5.01506 10.2334 4.11854 9.4805 
341 1 -5.84719 -13.68 -26.4483 5 33.5462 -4.60284 9.84189 6.09222 11.3895 
342 1 -1.92439 -13.809 -26.4722 5 21.465 -5.06674 12.0078 4.11255 9.29033 
345 1 0.0599589 -13.8294 -24.5743 5 21.9536 -5.05446 11.0425 4.3332 8.10014 
344 1 2.01064 -13.8165 -26.4769 5 21.7584 -5.05208 12.8227 5.24497 9.66676 
347 1 4.03617 -13.7622 -24.5769 5 21.2108 -5.00854 11.3251 4.37714 10.5838 
346 1 5.96388 -13.6713 -26.4742 5 34.2738 -4.58165 10.6445 6.98081 11.2673 
348 1 -9.80599 -9.89928 -26.467 5 28.6297 -4.85112 11.9337 12.3378 13.2894 
349 1 -7.81601 -11.8173 -26.4476 5 27.846 -4.88038 11.7113 9.39755 13.0626 
352 1 -7.89023 -9.91385 -24.5792 5 6.90818 -5.42637 -1.85157 -3.98577 -7.04133 
350 1 -5.88868 -9.89662 -26.4763 1 0.0122327 -5.71509 -5.10779 -5.65278 -8.13267 
351 1 -5.85663 -11.8242 -24.5762 5 7.0815 -5.38204 -2.25858 -9.5871 -8.97609 
353 1 -3.86982 -11.8522 -26.4949 1 0.0562211 -5.58701 -5.58844 -10.3144 -7.63402 
356 1 -3.92104 -9.89847 -24.6015 1 0.0186236 -5.78271 -1.80345 -1.48284 -6.88727 
354 1 -1.92566 -9.8965 -26.4823 1 0.00773259 -5.78377 -1.70468 -0.362112 -4.91602 
355 1 -1.92262 -11.8959 -24.5631 1 0.0411803 -5.62229 -1.83081 -7.16046 -7.25325 
357 1 0.0342726 -11.8914 -26.464 1 0.0236487 -5.63366 -0.941394 -6.31081 -4.92153 
358 1 1.98211 -9.89321 -26.4769 1 0.0178939 -5.77626 -2.34274 -0.0142805 -6.07622 
359 1 2.02694 -11.8892 -24.5796 1 0.0368277 -5.63391 -1.12359 -5.81531 -5.8772 
360 1 0.0298113 -9.90732 -24.5685 1 0.00967302 -5.77156 -2.7725 0.0153596 -6.98836 
361 1 3.96784 -11.8374 -26.4747 1 0.0326955 -5.59258 -3.88231 -9.10138 -6.90199 
364 1 3.97038 -9.86462 -24.6075 1 0.0258455 -5.78653 -1.20685 -0.302227 -7.22141 
362 1 5.94921 -9.85691 -26.4704 1 0.018037 -5.72117 -3.35495 -4.67451 -7.54372 
363 1 5.97913 -11.8213 -24.5899 5 6.55154 -5.38383 -1.00834 -7.08016 -7.4195 
365 1 7.93202 -11.7835 -26.4357 5 28.4003 -4.85714 13.0718 11.6119 12.9321 